ZCORN
    992.118    992.831    992.831    993.657    993.657    995.150    995.150    997.699
    997.699   1000.168   1000.168   1001.694   1001.694   1002.206   1002.206   1002.286
   1002.286   1002.310   1002.310   1002.333   1002.333   1002.340   1002.340   1002.326
   1002.326   1002.276   1002.276   1002.199   1002.199   1002.075   1002.075   1001.881
   1001.881   1001.597   1001.597   1001.209   1001.209   1000.710   1000.710   1000.135
   1000.135    999.479    999.479    998.733    998.733    997.763    997.763    996.541

    990.633    991.292    991.292    991.790    991.790    992.751    992.751    995.076
    995.076    997.796    997.796    999.730    999.730    999.613    999.613    998.459
    998.459    997.445    997.445    996.672    996.672    996.060    996.060    995.558
    995.558    995.096    995.096    994.674    994.674    994.219    994.219    993.731
    993.731    993.212    993.212    992.643    992.643    992.028    992.028    991.379
    991.379    990.683    990.683    989.866    989.866    988.896    988.896    987.765

    990.633    991.292    991.292    991.790    991.790    992.751    992.751    995.076
    995.076    997.796    997.796    999.730    999.730    999.613    999.613    998.459
    998.459    997.445    997.445    996.672    996.672    996.060    996.060    995.558
    995.558    995.096    995.096    994.674    994.674    994.219    994.219    993.731
    993.731    993.212    993.212    992.643    992.643    992.028    992.028    991.379
    991.379    990.683    990.683    989.866    989.866    988.896    988.896    987.765

    989.405    989.799    989.799    989.642    989.642    989.388    989.388    990.084
    990.084    990.813    990.813    991.104    991.104    990.418    990.418    989.167
    989.167    987.912    987.912    986.838    986.838    985.938    985.938    985.165
    985.165    984.516    984.516    983.907    983.907    983.298    983.298    982.693
    982.693    982.057    982.057    981.415    981.415    980.756    980.756    980.096
    980.096    979.390    979.390    978.628    978.628    977.704    977.704    976.587

    989.405    989.799    989.799    989.642    989.642    989.388    989.388    990.084
    990.084    990.813    990.813    991.104    991.104    990.418    990.418    989.167
    989.167    987.912    987.912    986.838    986.838    985.938    985.938    985.165
    985.165    984.516    984.516    983.907    983.907    983.298    983.298    982.693
    982.693    982.057    982.057    981.415    981.415    980.756    980.756    980.096
    980.096    979.390    979.390    978.628    978.628    977.704    977.704    976.587

    988.511    988.558    988.558    987.939    987.939    985.962    985.962    984.938
    984.938    984.048    984.048    983.145    983.145    981.913    981.913    980.334
    980.334    978.731    978.731    977.410    977.410    976.299    976.299    975.369
    975.369    974.606    974.606    973.897    973.897    973.221    973.221    972.498
    972.498    971.745    971.745    970.972    970.972    970.176    970.176    969.386
    969.386    968.607    968.607    967.780    967.780    966.787    966.787    965.515

    988.511    988.558    988.558    987.939    987.939    985.962    985.962    984.938
    984.938    984.048    984.048    983.145    983.145    981.913    981.913    980.334
    980.334    978.731    978.731    977.410    977.410    976.299    976.299    975.369
    975.369    974.606    974.606    973.897    973.897    973.221    973.221    972.498
    972.498    971.745    971.745    970.972    970.972    970.176    970.176    969.386
    969.386    968.607    968.607    967.780    967.780    966.787    966.787    965.515

    987.979    987.702    987.702    986.976    986.976    984.208    984.208    980.766
    980.766    979.243    979.243    978.929    978.929    978.076    978.076    972.421
    972.421    966.462    966.462    963.829    963.829    964.220    964.220    964.220
    964.220    963.929    963.929    963.350    963.350    962.695    962.695    961.995
    961.995    961.226    961.226    960.419    960.419    959.673    959.673    958.977
    958.977    958.375    958.375    957.806    957.806    957.124    957.124    956.177

    987.979    987.702    987.702    986.976    986.976    984.208    984.208    980.766
    980.766    979.243    979.243    978.929    978.929    978.076    978.076    972.421
    972.421    966.462    966.462    963.829    963.829    964.220    964.220    964.220
    964.220    963.929    963.929    963.350    963.350    962.695    962.695    961.995
    961.995    961.226    961.226    960.419    960.419    959.673    959.673    958.977
    958.977    958.375    958.375    957.806    957.806    957.124    957.124    956.177

    987.748    987.183    987.183    986.310    986.310    983.887    983.887    978.474
    978.474    975.499    975.499    974.238    974.238    971.608    971.608    965.987
    965.987    960.640    960.640    957.268    957.268    955.123    955.123    953.196
    953.196    952.376    952.376    951.894    951.894    951.560    951.560    951.309
    951.309    951.141    951.141    950.997    950.997    950.967    950.967    950.931
    950.931    950.894    950.894    950.874    950.874    950.710    950.710    950.248

    987.748    987.183    987.183    986.310    986.310    983.887    983.887    978.474
    978.474    975.499    975.499    974.238    974.238    971.608    971.608    965.987
    965.987    960.640    960.640    957.268    957.268    955.123    955.123    953.196
    953.196    952.376    952.376    951.894    951.894    951.560    951.560    951.309
    951.309    951.141    951.141    950.997    950.997    950.967    950.967    950.931
    950.931    950.894    950.894    950.874    950.874    950.710    950.710    950.248

    987.712    986.892    986.892    985.691    985.691    982.937    982.937    977.962
    977.962    974.224    974.224    970.959    970.959    967.138    967.138    961.621
    961.621    956.555    956.555    952.925    952.925    950.144    950.144    947.775
    947.775    946.129    946.129    945.196    945.196    944.617    944.617    944.386
    944.386    944.537    944.537    944.854    944.854    945.263    945.263    945.677
    945.677    946.082    946.082    946.407    946.407    946.554    946.554    946.417

    987.712    986.892    986.892    985.691    985.691    982.937    982.937    977.962
    977.962    974.224    974.224    970.959    970.959    967.138    967.138    961.621
    961.621    956.555    956.555    952.925    952.925    950.144    950.144    947.775
    947.775    946.129    946.129    945.196    945.196    944.617    944.617    944.386
    944.386    944.537    944.537    944.854    944.854    945.263    945.263    945.677
    945.677    946.082    946.082    946.407    946.407    946.554    946.554    946.417

    987.755    986.741    986.741    985.182    985.182    982.084    982.084    977.995
    977.995    974.422    974.422    969.925    969.925    964.930    964.930    959.081
    959.081    953.848    953.848    949.974    949.974    946.611    946.611    944.135
    944.135    942.884    942.884    942.231    942.231    941.780    941.780    941.669
    941.669    941.806    941.806    942.114    942.114    942.479    942.479    942.880
    942.880    943.268    943.268    943.643    943.643    943.934    943.934    944.038

    987.755    986.741    986.741    985.182    985.182    982.084    982.084    977.995
    977.995    974.422    974.422    969.925    969.925    964.930    964.930    959.081
    959.081    953.848    953.848    949.974    949.974    946.611    946.611    944.135
    944.135    942.884    942.884    942.231    942.231    941.780    941.780    941.669
    941.669    941.806    941.806    942.114    942.114    942.479    942.479    942.880
    942.880    943.268    943.268    943.643    943.643    943.934    943.934    944.038

    987.832    986.671    986.671    984.858    984.858    981.649    981.649    978.353
    978.353    974.850    974.850    969.513    969.513    963.635    963.635    957.428
    957.428    952.342    952.342    948.197    948.197    942.204    942.204    940.655
    940.655    941.311    941.311    941.248    941.248    940.906    940.906    940.662
    940.662    940.649    940.649    940.829    940.829    941.124    941.124    941.418
    941.418    941.729    941.729    942.047    942.047    942.348    942.348    942.579

    987.832    986.671    986.671    984.858    984.858    981.649    981.649    978.353
    978.353    974.850    974.850    969.513    969.513    963.635    963.635    957.428
    957.428    952.342    952.342    948.197    948.197    942.204    942.204    940.655
    940.655    941.311    941.311    941.248    941.248    940.906    940.906    940.662
    940.662    940.649    940.649    940.829    940.829    941.124    941.124    941.418
    941.418    941.729    941.729    942.047    942.047    942.348    942.348    942.579

    987.909    986.651    986.651    984.677    984.677    981.529    981.529    978.748
    978.748    975.248    975.248    969.336    969.336    962.812    962.812    956.314
    956.314    951.553    951.553    947.558    947.558    942.844    942.844    941.084
    941.084    941.401    941.401    941.880    941.880    942.151    942.151    941.994
    941.994    941.304    941.304    940.823    940.823    940.652    940.652    940.695
    940.695    940.843    940.843    941.057    941.057    941.318    941.318    941.569

    987.909    986.651    986.651    984.677    984.677    981.529    981.529    978.748
    978.748    975.248    975.248    969.336    969.336    962.812    962.812    956.314
    956.314    951.553    951.553    947.558    947.558    942.844    942.844    941.084
    941.084    941.401    941.401    941.880    941.880    942.151    942.151    941.994
    941.994    941.304    941.304    940.823    940.823    940.652    940.652    940.695
    940.695    940.843    940.843    941.057    941.057    941.318    941.318    941.569

    987.989    986.654    986.654    984.587    984.587    981.569    981.569    979.079
    979.079    975.559    975.559    969.222    969.222    962.226    962.226    955.548
    955.548    951.255    951.255    947.190    947.190    944.128    944.128    942.238
    942.238    941.860    941.860    942.194    942.194    942.445    942.445    942.245
    942.245    941.649    941.649    941.064    941.064    940.632    940.632    940.378
    940.378    940.297    940.297    940.354    940.354    940.525    940.525    940.762

    987.989    986.654    986.654    984.587    984.587    981.569    981.569    979.079
    979.079    975.559    975.559    969.222    969.222    962.226    962.226    955.548
    955.548    951.255    951.255    947.190    947.190    944.128    944.128    942.238
    942.238    941.860    941.860    942.194    942.194    942.445    942.445    942.245
    942.245    941.649    941.649    941.064    941.064    940.632    940.632    940.378
    940.378    940.297    940.297    940.354    940.354    940.525    940.525    940.762

    988.083    986.678    986.678    984.546    984.546    981.689    981.689    979.384
    979.384    975.820    975.820    969.115    969.115    961.768    961.768    955.116
    955.116    951.389    951.389    946.320    946.320    944.292    944.292    942.797
    942.797    942.077    942.077    941.850    941.850    941.749    941.749    941.592
    941.592    941.204    941.204    940.716    940.716    940.277    940.277    939.966
    939.966    939.775    939.775    939.729    939.729    939.816    939.816    940.023

    988.083    986.678    986.678    984.546    984.546    981.689    981.689    979.384
    979.384    975.820    975.820    969.115    969.115    961.768    961.768    955.116
    955.116    951.389    951.389    946.320    946.320    944.292    944.292    942.797
    942.797    942.077    942.077    941.850    941.850    941.749    941.749    941.592
    941.592    941.204    941.204    940.716    940.716    940.277    940.277    939.966
    939.966    939.775    939.775    939.729    939.729    939.816    939.816    940.023

    988.203    986.728    986.728    984.546    984.546    981.856    981.856    979.675
    979.675    976.001    976.001    968.978    968.978    961.370    961.370    954.996
    954.996    951.827    951.827    945.413    945.413    943.724    943.724    942.489
    942.489    941.672    941.672    941.144    941.144    940.816    940.816    940.562
    940.562    940.197    940.197    939.779    939.779    939.371    939.371    939.170
    939.170    939.036    939.036    938.972    938.972    939.033    939.033    939.230

    988.203    986.728    986.728    984.546    984.546    981.856    981.856    979.675
    979.675    976.001    976.001    968.978    968.978    961.370    961.370    954.996
    954.996    951.827    951.827    945.413    945.413    943.724    943.724    942.489
    942.489    941.672    941.672    941.144    941.144    940.816    940.816    940.562
    940.562    940.197    940.197    939.779    939.779    939.371    939.371    939.170
    939.170    939.036    939.036    938.972    938.972    939.033    939.033    939.230

    988.354    986.798    986.798    984.580    984.580    982.037    982.037    979.989
    979.989    976.051    976.051    968.838    968.838    961.022    961.022    954.889
    954.889    951.228    951.228    945.253    945.253    943.088    943.088    941.863
    941.863    940.960    940.960    940.264    940.264    939.745    939.745    939.284
    939.284    938.805    938.805    938.353    938.353    938.009    938.009    937.939
    937.939    938.022    938.022    938.056    938.056    938.153    938.153    938.337

    988.354    986.798    986.798    984.580    984.580    982.037    982.037    979.989
    979.989    976.051    976.051    968.838    968.838    961.022    961.022    954.889
    954.889    951.228    951.228    945.253    945.253    943.088    943.088    941.863
    941.863    940.960    940.960    940.264    940.264    939.745    939.745    939.284
    939.284    938.805    938.805    938.353    938.353    938.009    938.009    937.939
    937.939    938.022    938.022    938.056    938.056    938.153    938.153    938.337

    988.528    986.895    986.895    984.643    984.643    982.211    982.211    980.200
    980.200    975.991    975.991    968.670    968.670    960.807    960.807    954.370
    954.370    950.081    950.081    945.286    945.286    942.526    942.526    941.124
    941.124    940.080    940.080    939.270    939.270    938.631    938.631    938.039
    938.039    937.530    937.530    937.072    937.072    936.831    936.831    936.831
    936.831    936.988    936.988    937.102    937.102    937.243    937.243    937.443

    988.528    986.895    986.895    984.643    984.643    982.211    982.211    980.200
    980.200    975.991    975.991    968.670    968.670    960.807    960.807    954.370
    954.370    950.081    950.081    945.286    945.286    942.526    942.526    941.124
    941.124    940.080    940.080    939.270    939.270    938.631    938.631    938.039
    938.039    937.530    937.530    937.072    937.072    936.831    936.831    936.831
    936.831    936.988    936.988    937.102    937.102    937.243    937.243    937.443

    988.699    986.996    986.996    984.720    984.720    982.372    982.372    980.250
    980.250    975.874    975.874    968.486    968.486    960.777    960.777    953.825
    953.825    949.050    949.050    944.948    944.948    941.940    941.940    940.414
    940.414    939.314    939.314    938.450    938.450    937.741    937.741    937.125
    937.125    936.543    936.543    936.005    936.005    935.787    935.787    935.911
    935.911    936.065    936.065    936.229    936.229    936.423    936.423    936.637

    988.699    986.996    986.996    984.720    984.720    982.372    982.372    980.250
    980.250    975.874    975.874    968.486    968.486    960.777    960.777    953.825
    953.825    949.050    949.050    944.948    944.948    941.940    941.940    940.414
    940.414    939.314    939.314    938.450    938.450    937.741    937.741    937.125
    937.125    936.543    936.543    936.005    936.005    935.787    935.787    935.911
    935.911    936.065    936.065    936.229    936.229    936.423    936.423    936.637

    988.856    987.096    987.096    984.801    984.801    982.519    982.519    980.180
    980.180    975.713    975.713    968.322    968.322    960.818    960.818    953.611
    953.611    948.220    948.220    944.490    944.490    941.519    941.519    939.919
    939.919    938.795    938.795    937.898    937.898    937.146    937.146    936.500
    936.500    935.918    935.918    935.409    935.409    935.148    935.148    935.182
    935.182    935.299    935.299    935.479    935.479    935.693    935.693    935.941

    988.856    987.096    987.096    984.801    984.801    982.519    982.519    980.180
    980.180    975.713    975.713    968.322    968.322    960.818    960.818    953.611
    953.611    948.220    948.220    944.490    944.490    941.519    941.519    939.919
    939.919    938.795    938.795    937.898    937.898    937.146    937.146    936.500
    936.500    935.918    935.918    935.409    935.409    935.148    935.148    935.182
    935.182    935.299    935.299    935.479    935.479    935.693    935.693    935.941

    989.003    987.196    987.196    984.881    984.881    982.656    982.656    980.110
    980.110    975.549    975.549    968.162    968.162    960.801    960.801    953.490
    953.490    947.511    947.511    944.098    944.098    941.244    941.244    939.588
    939.588    938.450    938.450    937.554    937.554    936.784    936.784    936.112
    936.112    935.536    935.536    935.038    935.038    934.770    934.770    934.613
    934.613    934.680    934.680    934.847    934.847    935.061    935.061    935.339

    989.003    987.196    987.196    984.881    984.881    982.656    982.656    980.110
    980.110    975.549    975.549    968.162    968.162    960.801    960.801    953.490
    953.490    947.511    947.511    944.098    944.098    941.244    941.244    939.588
    939.588    938.450    938.450    937.554    937.554    936.784    936.784    936.112
    936.112    935.536    935.536    935.038    935.038    934.770    934.770    934.613
    934.613    934.680    934.680    934.847    934.847    935.061    935.061    935.339

    989.154    987.293    987.293    984.968    984.968    982.800    982.800    980.063
    980.063    975.375    975.375    968.015    968.015    960.711    960.711    953.406
    953.406    946.889    946.889    943.714    943.714    941.003    941.003    939.314
    939.314    938.166    938.166    937.286    937.286    936.513    936.513    935.827
    935.827    935.232    935.232    934.710    934.710    934.389    934.389    934.118
    934.118    934.138    934.138    934.268    934.268    934.489    934.489    934.760

    989.154    987.293    987.293    984.968    984.968    982.800    982.800    980.063
    980.063    975.375    975.375    968.015    968.015    960.711    960.711    953.406
    953.406    946.889    946.889    943.714    943.714    941.003    941.003    939.314
    939.314    938.166    938.166    937.286    937.286    936.513    936.513    935.827
    935.827    935.232    935.232    934.710    934.710    934.389    934.389    934.118
    934.118    934.138    934.138    934.268    934.268    934.489    934.489    934.760

    989.308    987.400    987.400    985.058    985.058    982.957    982.957    980.046
    980.046    975.218    975.218    967.871    967.871    960.557    960.557    953.497
    953.497    946.624    946.624    943.335    943.335    940.752    940.752    939.039
    939.039    937.882    937.882    937.072    937.072    936.286    936.286    935.590
    935.590    934.957    934.957    934.402    934.402    934.010    934.010    933.669
    933.669    933.622    933.622    933.733    933.733    933.923    933.923    934.208

    989.308    987.400    987.400    985.058    985.058    982.957    982.957    980.046
    980.046    975.218    975.218    967.871    967.871    960.557    960.557    953.497
    953.497    946.624    946.624    943.335    943.335    940.752    940.752    939.039
    939.039    937.882    937.882    937.072    937.072    936.286    936.286    935.590
    935.590    934.957    934.957    934.402    934.402    934.010    934.010    933.669
    933.669    933.622    933.622    933.733    933.733    933.923    933.923    934.208

    989.465    987.511    987.511    985.155    985.155    983.131    983.131    980.056
    980.056    975.061    975.061    967.730    967.730    960.386    960.386    953.570
    953.570    947.036    947.036    943.048    943.048    940.501    940.501    938.782
    938.782    937.597    937.597    936.865    936.865    936.072    936.072    935.359
    935.359    934.696    934.696    934.104    934.104    933.639    933.639    933.254
    933.254    933.151    933.151    933.211    933.211    933.385    933.385    933.652

    989.465    987.511    987.511    985.155    985.155    983.131    983.131    980.056
    980.056    975.061    975.061    967.730    967.730    960.386    960.386    953.570
    953.570    947.036    947.036    943.048    943.048    940.501    940.501    938.782
    938.782    937.597    937.597    936.865    936.865    936.072    936.072    935.359
    935.359    934.696    934.696    934.104    934.104    933.639    933.639    933.254
    933.254    933.151    933.151    933.211    933.211    933.385    933.385    933.652

    989.632    987.635    987.635    985.256    985.256    983.325    983.325    980.086
    980.086    974.934    974.934    967.610    967.610    960.212    960.212    953.447
    953.447    947.511    947.511    942.941    942.941    940.244    940.244    938.511
    938.511    937.266    937.266    936.627    936.627    935.847    935.847    935.141
    935.141    934.455    934.455    933.816    933.816    933.281    933.281    932.883
    932.883    932.696    932.696    932.709    932.709    932.853    932.853    933.110

    989.632    987.635    987.635    985.256    985.256    983.325    983.325    980.086
    980.086    974.934    974.934    967.610    967.610    960.212    960.212    953.447
    953.447    947.511    947.511    942.941    942.941    940.244    940.244    938.511
    938.511    937.266    937.266    936.627    936.627    935.847    935.847    935.141
    935.141    934.455    934.455    933.816    933.816    933.281    933.281    932.883
    932.883    932.696    932.696    932.709    932.709    932.853    932.853    933.110

    989.813    987.769    987.769    985.359    985.359    983.546    983.546    980.140
    980.140    974.827    974.827    967.476    967.476    959.988    959.988    953.206
    953.206    947.474    947.474    942.897    942.897    939.986    939.986    938.243
    938.243    937.002    937.002    936.396    936.396    935.576    935.576    934.890
    934.890    934.191    934.191    933.512    933.512    932.950    932.950    932.522
    932.522    932.251    932.251    932.197    932.197    932.307    932.307    932.552

    989.813    987.769    987.769    985.359    985.359    983.546    983.546    980.140
    980.140    974.827    974.827    967.476    967.476    959.988    959.988    953.206
    953.206    947.474    947.474    942.897    942.897    939.986    939.986    938.243
    938.243    937.002    937.002    936.396    936.396    935.576    935.576    934.890
    934.890    934.191    934.191    933.512    933.512    932.950    932.950    932.522
    932.522    932.251    932.251    932.197    932.197    932.307    932.307    932.552

    990.024    987.926    987.926    985.467    985.467    983.814    983.814    980.217
    980.217    974.753    974.753    967.302    967.302    959.677    959.677    952.895
    952.895    947.153    947.153    942.690    942.690    939.682    939.682    937.908
    937.908    936.684    936.684    935.974    935.974    935.182    935.182    934.542
    934.542    933.867    933.867    933.157    933.157    932.568    932.568    932.120
    932.120    931.802    931.802    931.655    931.655    931.708    931.708    931.936

    990.024    987.926    987.926    985.467    985.467    983.814    983.814    980.217
    980.217    974.753    974.753    967.302    967.302    959.677    959.677    952.895
    952.895    947.153    947.153    942.690    942.690    939.682    939.682    937.908
    937.908    936.684    936.684    935.974    935.974    935.182    935.182    934.542
    934.542    933.867    933.867    933.157    933.157    932.568    932.568    932.120
    932.120    931.802    931.802    931.655    931.655    931.708    931.708    931.936

    990.281    988.113    988.113    985.577    985.577    984.145    984.145    980.334
    980.334    974.750    974.750    967.064    967.064    959.188    959.188    952.396
    952.396    946.671    946.671    942.245    942.245    939.257    939.257    937.413
    937.413    936.199    936.199    935.396    935.396    934.636    934.636    933.994
    933.994    933.345    933.345    932.649    932.649    932.060    932.060    931.611
    931.611    931.274    931.274    931.046    931.046    931.046    931.046    931.227

    990.281    988.113    988.113    985.577    985.577    984.145    984.145    980.334
    980.334    974.750    974.750    967.064    967.064    959.188    959.188    952.396
    952.396    946.671    946.671    942.245    942.245    939.257    939.257    937.413
    937.413    936.199    936.199    935.396    935.396    934.636    934.636    933.994
    933.994    933.345    933.345    932.649    932.649    932.060    932.060    931.611
    931.611    931.274    931.274    931.046    931.046    931.046    931.046    931.227

    990.596    988.337    988.337    985.677    985.677    984.557    984.557    980.508
    980.508    974.857    974.857    966.857    966.857    958.506    958.506    951.697
    951.697    946.015    946.015    941.632    941.632    938.665    938.665    936.784
    936.784    935.543    935.543    934.666    934.666    933.944    933.944    933.291
    933.291    932.635    932.635    931.986    931.986    931.411    931.411    930.956
    930.956    930.608    930.608    930.367    930.367    930.283    930.283    930.387

    990.596    988.337    988.337    985.677    985.677    984.557    984.557    980.508
    980.508    974.857    974.857    966.857    966.857    958.506    958.506    951.697
    951.697    946.015    946.015    941.632    941.632    938.665    938.665    936.784
    936.784    935.543    935.543    934.666    934.666    933.944    933.944    933.291
    933.291    932.635    932.635    931.986    931.986    931.411    931.411    930.956
    930.956    930.608    930.608    930.367    930.367    930.283    930.283    930.387

    990.950    988.588    988.588    985.748    985.748    985.035    985.035    980.756
    980.756    975.094    975.094    966.710    966.710    957.783    957.783    950.850
    950.850    945.212    945.212    940.833    940.833    937.892    937.892    935.995
    935.995    934.706    934.706    933.776    933.776    933.054    933.054    932.475
    932.475    931.893    931.893    931.324    931.324    930.758    930.758    930.293
    930.293    929.929    929.929    929.664    929.664    929.524    929.524    929.524

    990.950    988.588    988.588    985.748    985.748    985.035    985.035    980.756
    980.756    975.094    975.094    966.710    966.710    957.783    957.783    950.850
    950.850    945.212    945.212    940.833    940.833    937.892    937.892    935.995
    935.995    934.706    934.706    933.776    933.776    933.054    933.054    932.475
    932.475    931.893    931.893    931.324    931.324    930.758    930.758    930.293
    930.293    929.929    929.929    929.664    929.664    929.524    929.524    929.524

    991.298    988.839    988.839    985.798    985.798    985.497    985.497    981.094
    981.094    975.372    975.372    966.659    966.659    957.110    957.110    949.917
    949.917    944.209    944.209    939.882    939.882    936.905    936.905    935.041
    935.041    933.786    933.786    932.896    932.896    932.297    932.297    931.856
    931.856    931.327    931.327    930.818    930.818    930.260    930.260    929.778
    929.778    929.386    929.386    929.099    929.099    928.911    928.911    928.814

    991.298    988.839    988.839    985.798    985.798    985.497    985.497    981.094
    981.094    975.372    975.372    966.659    966.659    957.110    957.110    949.917
    949.917    944.209    944.209    939.882    939.882    936.905    936.905    935.041
    935.041    933.786    933.786    932.896    932.896    932.297    932.297    931.856
    931.856    931.327    931.327    930.818    930.818    930.260    930.260    929.778
    929.778    929.386    929.386    929.099    929.099    928.911    928.911    928.814

    991.606    989.077    989.077    985.828    985.828    985.875    985.875    981.502
    981.502    975.620    975.620    966.720    966.720    956.652    956.652    948.669
    948.669    943.071    943.071    938.705    938.705    935.616    935.616    933.836
    933.836    932.689    932.689    932.043    932.043    931.622    931.622    931.401
    931.401    931.013    931.013    930.511    930.511    929.982    929.982    929.487
    929.487    929.049    929.049    928.734    928.734    928.517    928.517    928.349
